# vtk DataFile Version 2.0
data file: MKS_results generated by Noah H. Paulson on Thu Feb 26 13:21:31 2015
ASCII
DATASET RECTILINEAR_GRID
DIMENSIONS 22 22 22
X_COORDINATES 22 float
 0.0000  0.0200  0.0400  0.0600  0.0800  0.1000  0.1200  0.1400  0.1600  0.1800  0.2000  0.2200  0.2400  0.2600  0.2800  0.3000  0.3200  0.3400  0.3600  0.3800  0.4000  0.4200 
Y_COORDINATES 22 float
 0.0000  0.0200  0.0400  0.0600  0.0800  0.1000  0.1200  0.1400  0.1600  0.1800  0.2000  0.2200  0.2400  0.2600  0.2800  0.3000  0.3200  0.3400  0.3600  0.3800  0.4000  0.4200 
Z_COORDINATES 22 float
 0.0000  0.0200  0.0400  0.0600  0.0800  0.1000  0.1200  0.1400  0.1600  0.1800  0.2000  0.2200  0.2400  0.2600  0.2800  0.3000  0.3200  0.3400  0.3600  0.3800  0.4000  0.4200 
CELL_DATA 9261
SCALARS GrainID int 1
LOOKUP_TABLE default
   39    39    39   110     4    50    50    50    50    50    50    50   210   210   210   210   210    65    65    65     7 
   39    39    39     4     4   207   207    50    50    50    50    50   210   210   210   210   210    65    65    65    65 
   39    39    39     4     4   207   207   207    50    50    50   210   210   210   210   210   210   152   152   152   152 
   39    39    39     4     4   207   207   207   207    50    50   210   210   210   210   210   210   152   152   152   152 
   39    39    39     4     4   127   127   207   207   207   210   210   210   210   210    45    45   152   152   152   152 
   16    16    16    16   216   216   216   216   216   216   216   210   210   210   210    45    45   152   152   152   152 
   16    16    16    16    43    43   216   216   216   216   216   210   210   210   210    45    45   152   152   152    16 
   16    16    16    16    43    43   216   216   216   216   216   216   210   210   218   218    78    78    78    78    16 
   16    16    16    16    43   216   216   216   216   197   197   197   178   178   178   178   218    78   196   196    16 
   16    16    16    16    41    41   216   216   197   197   197   197   178   178   178   178   178    78   196   196    16 
   16    16   147   147   147   147   147   216   197   197   197   197   178   178   178   178   178   178    98    98    98 
   98   177   147   147   147   147   147   147   197   197   197   197   178   178   178   178   178    98    98    98    98 
   98   177   147   147   147   147   147   147    97    97   217   217   217   217   217    47    47    47    98    98    98 
  177   177   177   147   147   147   147   147    97    97   217   217   217   217   217    47    47    47    98    98    98 
   98   177   147   147   147   147   147   147    97    97   217   217   217   217   217   217   217   217    98    98    98 
   19    19    19   147   147   147   147   147    97   217   217   217   217   217   217   217   217   217    59    59    59 
  125   125   125   220   220   147   147   147    97   217   217   217   217   217   217   217   217    73    59    59    59 
  125   125   125   220   220   147   147   147    97   217   217   217   217   217   217    81    81    73    59    59    59 
  125   125   125   220   220   147   147   147   109   217   217   217   172   172   217    81    81    73    59    59    59 
  125   125   125   220   220   147   147   109    50    50   172   172   172   172   172    81    81    73    59    59    59 
  125   125   125   220   220   147    50    50    50    50    50   172   172   172   172   172   172    73    59    59    59 
   39    39    39   110     4     4    50    50    50    50    50    50   172   172   210   210   210    65    65    65     7 
   39    39    39     4     4     4   207    50    50    50    50   210   210   210   210   210   210    65    65    65    65 
   39    39    39     4     4     4   207   207    50    50    50   210   210   210   210   210   210    65    65    65    65 
   39    39    39     4     4     4   207   207   207    50    50   210   210   210   210   210   210   152   152   152   152 
   39    39    39     4     4     4   207   207   207    50   210   210   210   210   210   210    45   152   152   152   152 
   16    16    16    16    16   216   216   114   216   216   210   210   210   210   210    45    45    45   152   152    16 
   16    16    16    16    16   216   216   216   216   216   216   210   210   210   210   218   196    78   196   196    16 
   16    16    16    16    16   216   216   216   216   216   216   210   210   210   218   218    78    78    78    78    16 
   16    16    16    16    16   216   216   216   216   216   197   197   218   218   218   218   218    78   196   196    16 
   16    16    16    16   147   216   216   216   216   216   197   197   178   178   178   218   218   218   196   196    16 
   16    16    16   147   147   147   147   147   197   197   197   197   178   178   178   178   218   218    98    98    98 
   98   177   147   147   147   147   147   147   147   197   197   217   217   178   178   178    47    98    98    98    98 
   98   177   177   147   147   147   147   147   147   147   217   217   217   217    47    47    47    98    98    98    98 
  177   177   177   147   147   147   147   147   147   147   217   217   217   217    47    47    47    98    98    98    98 
   98   177   177   147   147   147   147   147   147   217   217   217   217   217   217    47    47    98    98    98    98 
   19    19    19   147   147   147   147   147   147   217   217   217   217    77   217   217   217    98    98    98    98 
  125   125   125   147   147   147   147   147   147   217   217   217   217   217   217   217   217    73    59    59    59 
  125   125   125   220   220   147   147   147   109   217   217   217   217   217   217    81    81    73    59    59    59 
  125   125   125   220   220   147   147   109   109    60    60   217   172   172   172    81    81    73    59    59    59 
  125   125   125   220   220   147   109   109    50    50    50   172   172   172   172    81    81    73    59    59    59 
  125   125   125   220   220   147    50    50    50    50    50   172   172   172   172   172    81    73    59    59    59 
    7   158   110   110     4     4     4    50    50    50    50   134   134   210   210   210   210    65    65     7     7 
  158    39   110     4     4     4     4     4    50    50    50   134   134   210   210   210   210    65    65    65     7 
   39    39     4     4     4     4     4   207    50    50    50   134   210   210   210   210   210    65    65   206   206 
   39    39    39     4     4     4     4   207   207    50    50   210   210   210   210   210   210   210   152   152    16 
   16    16    16     4     4     4     4   207   207   207   210   210   210   210   210   210   210   152   152   152    16 
   16    16    16    16    16   216   216   216   216   216   210   210   210   210   210   210   196   196   196   196    16 
   16    16    16    16    16   216   216   216   216   216   216   210   210   210   210   218   196   196   196   196    16 
   16    16    16    16    16   216   216   216   216   216   216   210   210   218   218   218   196   196   196   196    16 
   16    16    16    16    16   216   216   216   216   216   216   216   218   218   218   218   218   196   196   196    16 
   16    16    16    16    16   216   216   216   216   216   216   216   218   218   218   218   218   218   196   196    16 
   16    16    16    16   147   147   147   216   216   216   197    26   218   218   218   218   218   218    98    98    98 
   98    16   147   147   147   147   147   147   147   147    26   217   217   217   218   218   218    98    98    98    98 
   98   177   147   147   147   147   147   147   147   147   217   217   217   217   217    47    47    98    98    98    98 
   98   177   177   147   147   147   147   147   147   147   217   217   217   217   217    47    47    98    98    98    98 
   98   177   147   147   147   147   147   147   147   217   217   217   217   217   217   217   217    98    98    98    98 
   98    19    19   147   147    44   147   147   147   217   217   217   217   217   217   217   217    98    98    98    98 
  125   125   125   147   147    44    44   147   147   217   217   217   217   217   217   217   217    73    59    59    59 
  125   125   125   125    44    44    44   109   109    60    60   217   217   217   217    81    81    73    59    59    59 
  125   125   125   125   125    44   109   109   109    83    60    60   172   172   172    81    81    73     8    59    59 
  125   125   125   125   125   109   109   109    83    83    83    60   172   172   172    81    81     8     8     8    59 
  125   125   125   125   125   109   109   109   109    83   109   172   172   172   172   172   172     8     8     7     7 
    7   158   110   110     4     4     4    52   109   109   134   134   134   210   210   210   210    65     7     7     7 
  158   110   110   110     4     4     4    52    50    50   134   134   134   210   210   210   210    65   206     7     7 
  158   158   110     4     4     4     4     4    50    50   134   134   134   210   210   210   210   210   206   206   206 
   16    39     4     4     4     4     4     4   180   180   180   210   210   210   210   210   210   210   206   206   206 
   16    16    16     4     4     4     4   180   180   180   180   210   210   210   210   210   210   210   196   196    16 
   16    16    16    16     4     4     4   180   180   180   180   180   210   210   210   210   196   196   196   196    16 
   16    16    16    16    16   216   216   216   180   180   180   180   210   210   218   218   196   196   196   196    16 
   16    16    16    16    16   216   216   128   128   180   180   180   218   218   218   218   196   196   196   196    16 
   16    16    16    16    16   216   216   216   216   216   216   218   218   218   218   218   218   196   196   196    16 
   16    16    16    16    16    67    67    67    67    67    67   218   218   218   218   146   218   218   196   196    16 
   16    16    16    16   147   147    67    67    67    67    26    26    26   218   218   218   218   218    98    98    98 
   98    98    16   147   147   147   147   147   147    26    26    26    26    26   218   218   132   132    98    98    98 
   98    98    98   147   147   147   147   147   147    26    26    26    26    26   217    10    10   132    98    98    98 
   98    98    98   147   147   147   147   147   147   147   217   217   217   217   217    68    10    10    98    98    98 
   98    98   147   147   147    44   147   147   147   217   217   217   204   204   204    10    10    10    98    98    98 
   98    19    19   147    44    44    44   147   147    60    60   217   204   204   204   217    10    10    98    98    98 
  125   125   125    44    44    44    44    44    60    60    60    60   204   204   204   217   217    10    98    98    98 
  125   125   125   125    44    44    44   109   109    60    60    60    60   217   217   217    81     8     8     8     8 
  125   125   125   125    44    44   109   109   109    83    60    60    60    60   172    81     8     8     8     8     8 
    7   125   125   125    44   109   109   109    83    83    83    60    60    60   172    81     8     8     8     8     8 
    7     7   125    91   168   109   109   109   109    83   109   109    60   172   172   172     8     8     8     7     7 
    7   158   158   110     4     4     4   109   109   109   109   134   134   209   209   210   210     7     7     7     7 
  158   158   158     4     4     4     4     4   109    50   134   134   134   209   209   210   210   206   206   206     7 
  158   158   158     4     4     4     4     4     4   134   134   134   210   210   210   210   210   206   206   206   206 
   91   158     4     4     4     4     4     4   180   180   180   210   210   210   210   210   210   210   206   206   206 
   16    16    16     4     4     4     4   180   180   180   180   180   210   210   210   210   210   210   196    16    16 
   16    16    16    16    16     4   124   180   180   180   180   180   210   210   210   218   218   130   196    16    16 
   16    16    16    16    16   124   124   180   180   180   180   180   210   218   218   218   218   196   196    16    16 
   16    16    16    16    16    16   124   128   180   180   180   180   218   218   218   218   218   196   196    16    16 
   16    16    16    16    16    16    67    67    67   180   180   180    36   218   218   218   218   218   196    16    16 
   16    16    16    16    16    67    67    67    67    67    67    36    36    36   218   218   218     1     1     1    16 
   16    16    16    16    16    67    67    67    67    67    26    26    26    26   218   218   218     1     1    98    98 
   98    16    16   147   147    28   191   191   191    26    26    26    26    26    26   170   132   132   132    98    98 
   98    98    74    74    28    28    28    28    28    26    26    26    26    26    26    10   211   132   132    98    98 
   98    98    74    74    28    28    28    28    28    26    26    26    26    26    26    10    10    10   132    98    98 
   98    98    74    74    28    28    28    28    28    60    60    60   204   204   204    10    10    10    10    98    98 
   98    98    74    44    44    44    44    44    60    60    60    60   204   204   204    10    10    10    10    98    98 
   98    98   125    44    44    44    44    44    60    60    60    60    60   204   204    10    10    10    10    98    98 
  125   125   125    44    44    44    44   109   109    60    60    60    60    60    60   217    10     8     8     8     8 
    7     7   125   125    44    44   109   109   109   109    60    60    60    60   198   198     8     8     8     8     8 
    7     7     7   168   184   184   109   109   109   109   109    60    60    60   198   198     8     8     8     8     7 
    7     7     7    91   168   184   109   109   109   109   109   109    60   198   198   198     8     8     7     7     7 
    7   158    91    91    91     4   109   109   109   109   109   109   209   209   209   198   198   206   206     7     7 
  158   104   158    91     4     4     4   109   109   109   134   134   209   209   209   210   206   206   206   206   206 
   91   158    91    91     4     4     4     4   180   180   134   134   209   209   209   210   210   206   206   206   206 
   91    91    91    91     4     4   124   124   180   180   180   163   163   210   210   210   210   206   206   206   206 
   91    16    91     4     4   124   124   124   180   180   180   180   210   210   210   210   210   130   206   206   206 
   16    16    16    16   190   167   124   124   180   180   180   180   210   210   210   218   130   130   130   130    16 
   16    16    16    16    16   124   124   124   180   180   180   180   180   218   218   218   218   218   196    16    16 
   16    16    16    16    16   124   124   124   180   180   180   180   180   218   218    76   218   218   218    16    16 
   16    16    16    16    16    67    67    67    67    67   180   180    36    36   218   218   218     1     1     1    16 
   16    16    16    16    67    67    67    67    67    67    67    36    36    36    96    96     1     1     1     1    16 
   16    16    16    16    67    67    67    67    67    67    26    26    26    36    96    96     1     1     1     1     1 
   98    16    74    74    28    28   191   191   191   191    26    26    26    26    26   170   132   132   132   132    98 
   98    98    74    74    28    28    28   191   191    26    26    26    26    26    26   132   132   132   132   132    98 
   98    98    74    74    28    28    28    28    28    26    26    26    26    26    26   132   132    10   132   132    98 
   98    98    74    74    28    28    28    28    28    60    60    72    26    26   132   132   132   132   132   132    98 
   98    98    74    74    28    28    28    28    60    60    60    72    60    60   132   132   132   132   132   132    98 
   98    98    74    44    44    44    44    60    60    60    60    60    60    60    60   132   132   132   132   132    98 
    7     7    64    64   168   168   145   109   109    60    60    60    60    60   198   198   132     8     8     8     8 
    7     7    64   168   168   145   145   109   109   109    60    60    60    60   198   198   198     8     8     8     8 
    7     7    91   168   184   184   145   109   109   109   109    60    60   198   198   198   198     8     8     7     7 
    7    91    91    91   168   184   145   109   109   109   109   109   198   198   198   198   198     8     7     7     7 
   91    91    91    91    91     9   145   145   109   109   109   198   198   198   198   198   206   206   206   206   206 
   91    91    91    91    91     9     9   120   120   109   109   198   209   209   209   198   206   206   206   206   206 
   91    91    91    91    91     9   124   124   124   124   180   209   209   209   209   210   206   206   206   206   206 
   91    91    91    91   190   124   124   124   124   180   180   180   163   221   221   210   206   206   206    86   206 
   91    91    91   190   190   190   124   124   124   180   180   180   221   221   221   221   221   206    86    86    86 
   16    16    16   190   190   190   124   124   124   180   180   180   221   221   221   221   130   130   130    86    86 
   16    16    16   190   190   190   124   124   124   180   180   180   221   221   221   218   218   218   196   112   112 
   16    16    16    16   190   124   124   124   124   180   180   180   221   221   218   218   218   218   218   112   112 
   88    88    88    16    16   124    67    67    67   180   180   180   175   175   218   218   218     1     1     1    16 
   88    88    88    88    67    67    67    67    67    67    26   175   175   175    96    96     1     1     1     1     1 
   88    88    88    88    67    67    67    67    67    67    26    26    26    26    25    96     1     1     1     1     1 
  123   123    88    74    28    28   191   191   191    26    26    26    26    26    26   170    10    10    10    10    10 
   98    98    74    74    28    28    28   191   191    26    26    26    26    26    26    10    10    10    10    10    10 
   98    98    74    74    28    28    28    28    28    26    26    26    26    26    26   132   132    10    10    10    10 
   98    98    74    74    28    28    28   111   111    93    93    93    93    26   132   132   132   132   132    10    10 
   98   155   155   155    28    28   111   111   111    60    93    93    93    60   132   132   132   132   132   132    98 
   98    64    64    64   168   168   111   111    60    60    60    60    60    60   198   132   132   132   132   132    98 
   64    64    64    64   168   168   145   145   109    60    60    60    60   198   198   198   198     8     8     8     8 
   91    91    64   168   168   168   145   145   109   109    60    60    60   198   198   198   198     8     8     8     8 
   91    91    91   168   168   168   145   145   109   109   109    60   198   198   198   198   198     8     8     7     7 
   91    91    91    91   168   168   145   145   109   109   109   198   198   198   198   198   198   206   206     7     7 
   91    91    91    91    91     9   145   120   145   109   109   198   198   198   198   198   206   206   206   206   206 
   91    91    91    91     9     9   120   120   120   109   109   198   198   198   198   198   206   206   206   202   206 
   91    91    91    91    91     9   124   120   124   124   180   209   209   221   221   206   206   206   206   206   206 
   91    91    91    91   190   124   124   124   124   124   180   221   221   221   221   221   221   206    86    86    86 
   91    91    91   190   190   190   124   124   124    24   180   221     3   221   221   221   221   206    86    86    86 
   91    91    91   190   190   190   124   124   124    24    24   221   221   221   221   221   221    61    86    86    86 
   16    16    16   190   190   190   124   124   124    24   180   221   221   221   221   221   221   218   196   112   112 
   88    88    88   190   190   124   124   124   124   124   180   221   221   221   221   221   218   218   218   112   112 
   88    88    88    88   190   124   124   124   124   124   180   221   175   175   175   218   218     1     1     1   112 
   88    88    88    88   190    67    67    67    67    67   219   175   175   175   175   218     1     1     1     1     1 
   88    88    88    88    67    67    67    67    67   219    26    26    26    25    25    96     1     1     1    10   123 
  123   123    35    35    35    28   191   191   219    26    26    26    25    25    25    10    10    10    10    10   123 
  123   123    35    35    35    28    28   219   219    26    26    26    26    25    25    10    10    10    10    10   123 
  123   123    35    35    35   153    28   111   111    93    93    26    26    26    26   132   132    10    10    10   123 
  123   123    35    35    35    28   111   111   111    93    93    93    93    93   132   132   132   132    10    10   123 
  123   155   155   155   155   155   111   111   111    93    93    93    93    93    93   132   132   132   132   132   123 
  155   155   155   155   155   111   111   111   111    60    93    93    93   198   198   198   132   132   132   132   123 
   64    64    64    64    64   168   145   179   145    60    60    60    60   198   198   198   198   198     8     8   206 
   91    91    64    64   168   168   145   145   145   109    60    60   198   198   198   198   198   198     8     8   206 
   91    91    91    21   168   168   145   145   145   109   109   198   198   198   198   198   198   206   206   206   206 
   91    91    91    91   168   168   145   145   145   109   109   198   198   198   198   198   198   206   206   206   206 
   91    91    91    91    91     9   145   145   145   109   109   198   198   198   198   198   206   206   206   206   206 
   91    91    91    91    91     9     9   120   120   109   109   198   198   198   198   198   206   206   206   206   206 
   91    91    91    91    91     9   124   124   124   124    55   221   221   221   221   221   206   206   206   206   206 
   91    91    91    91    91   124   124   124   124    55    55   221     3   221   221   221   221   206   206    86   206 
   91    91    91   190   190   190   124   124   124    55    55   221     3     3   221   221   221   206    86    86    86 
   79    91    91   190   190   190   124   124   124    55    55   221     3   221   221   221   221    61    79    79    79 
   79    88    88   190   190   190   124   124   124    55    55   221   221   221   221   221   221   221    79    79    79 
   88    88    88   190   190   124   124   124   124    55    55   221   221   221   221   221   221   221    79    79   112 
   88    88    88    88   190   124   124   124   124   219   219   221   221   221   221   221   221     1     1    79   112 
   88    88    63    63    63    67    67   219   219   219   219   219   175   175   175   218     1     1     1   123   123 
  123    88    63   161   161   219   219   219   219   219   219    26    25    25    25    25     1     1   123   123   123 
  123   123   161   161   161   161   219   219   219   219   219    26    25    25    25    25    10    10   123   123   123 
  123   123   123    35    35    28   219   219   219   219   219    80    25    25    25    10   122   122   123   123   123 
  123   123    35    35    35   153   117   219   219   219    80    80    80    26    26   132   122   122   122   123   123 
  123   123   155   155   155   155   111   111   111    93    93    93    93    93    93   132   122   122   122   123   123 
  123   155   155   155   155   155   111   111   111    93    93    93    93    93    93   132   132   132   132   123   123 
  155   155   155   155   155   155   111   111   111   160   160   160   160   198   198   198   132   132   132   123   123 
   91   155   108   108   108   168   145   145   145   160   160   160   160   198   198   198   198   198   182   182   182 
   91    91    91   108   168   168   145   145   145   145   160   160   198   198   198   198   198   198   182   182   182 
   91    91    91    91   168   168   145   145   145   145   198   198   198   198   198   198   198   198   182   182   182 
   91    91    91    91   168   168   145   145   145   145   198   198   198   198   198   198   198   206   206   206   206 
   91    91    91    91    91     9   115   115   115   115   198   198   198   198   198   198   206   206   206   206   206 
   91    91    91    91    91     9     9   120   115   115   198   198   198   198   198   221   206   206   206     6   206 
   91    91    91    91    91     9   124   124   124    55    55   221   221   221   221   221   221   206   206   206   206 
   91    91    91    91   124   124   124   124    55    55    55   221     3   221   221   221   221   206   206   206   206 
   79    91    91    91   124   124   124   124    55    55    55   221     3     3   221   221   221    79    79    79    79 
   79    79    91   124   124   124   124   124    55    55    55   221     3     3   221   221   221    79    79    79    79 
   79    79    63   124   124   124   124   124    55    55    55   221   221   221   221   221   221    79    79    79    79 
   63    63    63    63    12    12   124   124   124    55    55   221   221   221   221   221   221    79    79    79    79 
   63    63    63    63    12    12    12    57   124   219   219   221   221   221   221   221   221    79    79    79    79 
   63    63    63    63    63    12    57    57   219   219   219   219   219   175   175   221   221     1   123   123   123 
  123    63    63   161   161   161   219   219   219   219   219   219   219    25    25   142   142   123   123   123   123 
  123   123   161   161   161   161   219   219   219   219   219   219   219    25    25   142   142   123   123   123   123 
  123   123   161   161   161   117   219   219   219   219   219    80    80    25    25   142   122   122   122   123   123 
  123   123   155   155   117   117   117   219   219   219    80    80    80   118   118   122   122   122   122   123   123 
  123   123   155   155   155   117   117   219   219   219    80    80    80    93    93   122   122   122   122   123   123 
  123   155   155    30   155   155   111   111   111   160   160    33    93    93    93   122   122   122   122   123   123 
  155   155   155   155   155   155   155   111   160   160   160   160   160   160   198   181   181   181   122   123   123 
  203   155   108    87   108   155   145   145   145   160   160   160   160   160   198   198   181   182   182   182   182 
  203   203   108   108   108   168   145    85   115   160   160   160   160   198   198   198   198   182   182   182   182 
   91    91    91   108   168   168    85    85    85   115   160   198   198   198   198   198   198   182   182   182   182 
   91    91    91    91   168   168   115    85   115   115   198   198   198   198   198   198   198   206   182   182   206 
   91    91    91    91   162   162   115   115   115   115   115   198   198   198   198   129   129   206   206   206   206 
   91    91    91    91   162   162   162   115   115   115   115   198   198   221   221   129   129   129   206     6   206 
   91    91    91    91   162   162   162    55    55    55    55   221   221   221   221   221   129   129   206   206   206 
   79    91    91   215   215   124   124    55    55    55    55   221   221   221   221   221   221    79    79    79    79 
   79    79   215   215    29    29   124    55    55    55    55   221     3     3   221   221   221    79    79    79    79 
   79    79   215    29    29    29   124    55    55    55    55   221   221     3   221   221   221    79    79    79    79 
   79    79    63    12    12    12    12   124    55    55    55   221   221   221   221   221   221    79    79    79    79 
   63    63    63    63    12    12    12    12    55    55    55   221   221   221   221   221   221    79    79    79    79 
   63    63    63    63    12    12    12    57    57   219   219   219   221   221   221   221   221    79    79   164    79 
   63    63    63    63    12    12    57    57   219   219   219   219   219   221   221   221   221   164   164   164   164 
  123    63    63    63    12    57    57    57   219   219   219   219   219   219    25   142   122   123   123   123   123 
  123   123   161   161   161   117   219   219   219   219   219   219   219   219    25   142   122   123   123   123   123 
  123   123   195   161   117   117   117   219   219   219   219   219    32    32    32   122   122   122   102   123   123 
  123   123   195   117   117   117   117   219   219   219   219    80    32    32    32   122   122   122   102   102   123 
  123   195   155   155   117   117   117   219   219   219   219    80    80    32    32   122   122   122   102   102   123 
  123   155   155   155   155   194   194   219   219   219   137   137   137   160   181   181   122   122   102   102   102 
  203   203   155   155   155   194   194   194   193   193   137   137   160   160   181   181   181   181   102   102   102 
  203   203   203   108   108   115   115   115   193   193   137   137   160   160   181   181   181   181    31    31    31 
  203   203   203   108   115   115   115   115   115   193   137   137   137   198   181   181   181   181    31    31    31 